LAMMPS (19 May 2017)
Total wall time: 0:00:00
